 Gaussian 16, Revision A.03,
 Gaussian 16:  ES64L-G16RevA.03 25-Dec-2016

 -------------------------------
 # opt freq rb3lyp/6-311++g(d,p)
 -------------------------------

 -----
 Title
 -----
 Symbolic Z-matrix:
 Charge =  0 Multiplicity = 1

 SCF Done:  E(RB3LYP) =  -458.579910348     A.U. after   12 cycles
 SCF Done:  E(RB3LYP) =  -458.587245885     A.U. after   11 cycles
 SCF Done:  E(RB3LYP) =  -458.588644120     A.U. after   11 cycles
 SCF Done:  E(RB3LYP) =  -458.590010671     A.U. after   11 cycles
 SCF Done:  E(RB3LYP) =  -458.590752383     A.U. after   11 cycles
 SCF Done:  E(RB3LYP) =  -458.590958014     A.U. after   10 cycles
 SCF Done:  E(RB3LYP) =  -458.591110363     A.U. after   10 cycles
 SCF Done:  E(RB3LYP) =  -458.591174960     A.U. after   10 cycles
 SCF Done:  E(RB3LYP) =  -458.591277040     A.U. after   10 cycles
 SCF Done:  E(RB3LYP) =  -458.591372501     A.U. after   13 cycles
 SCF Done:  E(RB3LYP) =  -458.594353276     A.U. after    8 cycles
 SCF Done:  E(RB3LYP) =  -458.594353775     A.U. after    8 cycles
 SCF Done:  E(RB3LYP) =  -458.594355220     A.U. after    8 cycles
 SCF Done:  E(RB3LYP) =  -458.594355492     A.U. after    8 cycles
 SCF Done:  E(RB3LYP) =  -458.594354068     A.U. after    8 cycles
 SCF Done:  E(RB3LYP) =  -458.594354095     A.U. after    7 cycles
 SCF Done:  E(RB3LYP) =  -458.594355229     A.U. after    8 cycles
 SCF Done:  E(RB3LYP) =  -458.594355491     A.U. after    8 cycles
 SCF Done:  E(RB3LYP) =  -458.594354064     A.U. after    8 cycles
 Optimization completed.
    -- Stationary point found.
 Normal termination of Gaussian 16 at Tue Dec  5 13:07:30 2023.

 ----------------------------------------------------------------------
 #N Geom=AllCheck Guess=TCheck SCRF=Check GenChk RB3LYP/6-311++G(d,p) F
 req
 ----------------------------------------------------------------------

 Structure from the checkpoint file:  "AC.chk"
 -----
 Title
 -----
 Charge =  0 Multiplicity = 1

                         Standard orientation:
 ---------------------------------------------------------------------
 Center     Atomic      Atomic             Coordinates (Angstroms)
 Number     Number       Type             X           Y           Z
 ---------------------------------------------------------------------
      1          7           0       -2.827335   -2.499285    0.037636
      2          6           0       -1.607237   -1.843421   -0.449080
      3          6           0       -1.220104   -0.696264    0.488355
      4          7           0        0.004526   -0.007775    0.068873
      5          6           0        0.025773    1.402089    0.466857
      6          6           0       -0.744302    2.304666   -0.499608
      7          7           0       -0.712302    3.691615   -0.018876
      8          6           0        1.216790   -0.725716    0.472936
      9          6           0        2.383081   -0.508387   -0.493530
     10          7           0        3.571398   -1.221653   -0.008272
     11          1           0       -3.011032   -3.355462   -0.473223
     12          1           0       -3.637400   -1.899528   -0.084156
     13          1           0       -1.687929   -1.443437   -1.470245
     14          1           0       -0.811968   -2.593945   -0.463589
     15          1           0       -1.144704   -1.082354    1.518683
     16          1           0       -2.038531    0.030496    0.490251
     17          1           0        1.059056    1.752989    0.492552
     18          1           0       -0.369749    1.534183    1.491970
     19          1           0       -1.762802    1.913855   -0.644932
     20          1           0       -0.250345    2.266625   -1.474096
     21          1           0       -1.264898    3.798028    0.826227
     22          1           0       -1.096683    4.326637   -0.709579
     23          1           0        1.007352   -1.796382    0.504835
     24          1           0        1.526199   -0.443038    1.496837
     25          1           0        2.548481    0.569000   -0.642959
     26          1           0        2.106340   -0.923214   -1.466448
     27          1           0        3.936322   -0.789439    0.834947
     28          1           0        4.314274   -1.203135   -0.698172
 ---------------------------------------------------------------------

 SCF Done:  E(RB3LYP) =  -458.594354064     A.U. after    1 cycles

 The electronic state is 1-A.
 Alpha  occ. eigenvalues --  -14.30378 -14.29654 -14.29521 -14.29418 -10.19208
 Alpha  occ. eigenvalues --  -10.19043 -10.19032 -10.18973 -10.18939 -10.18874
 Alpha  occ. eigenvalues --   -0.92704  -0.88523  -0.88389  -0.87610  -0.73909
 Alpha  occ. eigenvalues --   -0.73802  -0.67474  -0.61149  -0.61068  -0.57293
 Alpha  occ. eigenvalues --   -0.51066  -0.50091  -0.49339  -0.47958  -0.47209
 Alpha  occ. eigenvalues --   -0.45008  -0.44643  -0.43547  -0.42744  -0.40751
 Alpha  occ. eigenvalues --   -0.39269  -0.38848  -0.36293  -0.35635  -0.35075
 Alpha  occ. eigenvalues --   -0.34086  -0.33289  -0.24668  -0.24458  -0.24341
 Alpha  occ. eigenvalues --   -0.21732
 Alpha virt. eigenvalues --   -0.01469  -0.00738  -0.00558   0.00510   0.01674
 Alpha virt. eigenvalues --    0.02192   0.02339   0.02526   0.03410   0.04760
 Alpha virt. eigenvalues --    0.04997   0.05897   0.06083   0.06439   0.06477

 Mulliken charges:
               1
     1  N   -0.345645
     2  C   -0.251995
     3  C   -0.539303
     4  N    0.319100
     5  C   -0.533356
     6  C   -0.212797
     7  N   -0.348589
     8  C   -0.597575
     9  C   -0.217713
    10  N   -0.347524
    11  H    0.233515
    12  H    0.200809
    13  H    0.136559
    14  H    0.152673
    15  H    0.168013
    16  H    0.147812
    17  H    0.177080
    18  H    0.117950
    19  H    0.117938
    20  H    0.157650
    21  H    0.206192
    22  H    0.236226
    23  H    0.162809
    24  H    0.134999
    25  H    0.122833
    26  H    0.161026
    27  H    0.205567
    28  H    0.235745
 Sum of Mulliken charges =  -0.00000

 Dipole moment (field-independent basis, Debye):
    X=             -1.0168    Y=              1.1283    Z=             -1.2431  Tot=              1.9627
 Quadrupole moment (field-independent basis, Debye-Ang):
   XX=            -57.4940   YY=            -70.4813   ZZ=            -66.0110
   XY=             -1.9896   XZ=              2.4779   YZ=              3.7519

  Exact polarizability: 120.980   0.076 120.700   0.330   0.049 101.327
 Approx polarizability: 150.002  -0.386 150.564   0.024   0.417 150.548

                      1                      2                      3
                      A                      A                      A
 Frequencies --     63.0971                64.7181                70.5531
 Red. masses --      3.8017                 3.7065                 3.1353
 Frc consts  --      0.0089                 0.0091                 0.0092
 IR Inten    --      0.6188                 0.0335                 0.8832

                      4                      5                      6
                      A                      A                      A
 Frequencies --     77.4180                86.9115                99.4083
 Red. masses --      1.8823                 1.7742                 1.9976
 Frc consts  --      0.0066                 0.0079                 0.0116
 IR Inten    --      7.9402                 0.4623                 6.7395

                      7                      8                      9
                      A                      A                      A
 Frequencies --    205.9643               213.4076               229.9817
 Red. masses --      1.5675                 1.5822                 1.3487
 Frc consts  --      0.0392                 0.0425                 0.0420
 IR Inten    --     12.3000                 4.6389                36.5187

                     10                     11                     12
                      A                      A                      A
 Frequencies --    233.1211               255.3746               256.0338
 Red. masses --      1.7008                 1.6141                 1.5607
 Frc consts  --      0.0545                 0.0620                 0.0603
 IR Inten    --     16.1127                39.6323                19.3487

                     13                     14                     15
                      A                      A                      A
 Frequencies --    327.0312               359.2836               363.3484
 Red. masses --      4.2750                 2.8611                 2.9417
 Frc consts  --      0.2694                 0.2176                 0.2288
 IR Inten    --      5.3593                 6.2089                 1.9019

                     16                     17                     18
                      A                      A                      A
 Frequencies --    434.6944               537.6226               543.6102
 Red. masses --      2.9311                 3.3757                 3.4079
 Frc consts  --      0.3263                 0.5749                 0.5933
 IR Inten    --      8.1644                 1.7498                 8.2971

                     19                     20                     21
                      A                      A                      A
 Frequencies --    788.6998               792.3302               793.4985
 Red. masses --      1.1391                 1.1392                 1.1444
 Frc consts  --      0.4175                 0.4214                 0.4246
 IR Inten    --     52.2756                57.5894                47.9445

                     22                     23                     24
                      A                      A                      A
 Frequencies --    826.1799               827.8429               840.8695
 Red. masses --      1.2709                 1.3527                 1.2748
 Frc consts  --      0.5111                 0.5462                 0.5311
 IR Inten    --     78.9415                59.3167               131.6184

                     25                     26                     27
                      A                      A                      A
 Frequencies --    908.1967               964.2548               978.0468
 Red. masses --      2.9047                 1.8649                 1.9239
 Frc consts  --      1.4116                 1.0216                 1.0843
 IR Inten    --      5.8708                 0.1240                 1.0876

                     28                     29                     30
                      A                      A                      A
 Frequencies --    986.8102              1051.9050              1054.9696
 Red. masses --      2.1095                 2.8586                 2.8278
 Frc consts  --      1.2103                 1.8636                 1.8543
 IR Inten    --      2.8938                57.9671                40.8745

                     31                     32                     33
                      A                      A                      A
 Frequencies --   1065.0370              1077.3710              1090.2779
 Red. masses --      2.7547                 2.6451                 2.3814
 Frc consts  --      1.8410                 1.8089                 1.6679
 IR Inten    --     13.5046                42.7617                19.8753

                     34                     35                     36
                      A                      A                      A
 Frequencies --   1108.0541              1127.7303              1148.9741
 Red. masses --      2.0638                 1.6531                 1.5811
 Frc consts  --      1.4929                 1.2387                 1.2298
 IR Inten    --      2.0299                14.1308                 3.1032

                     37                     38                     39
                      A                      A                      A
 Frequencies --   1201.0451              1226.1227              1250.3242
 Red. masses --      1.4033                 1.8385                 1.7656
 Frc consts  --      1.1927                 1.6285                 1.6263
 IR Inten    --      3.5765                 9.9648                 8.9995

                     40                     41                     42
                      A                      A                      A
 Frequencies --   1284.2778              1301.1940              1318.4438
 Red. masses --      1.2506                 1.3363                 1.2999
 Frc consts  --      1.2153                 1.3330                 1.3313
 IR Inten    --     18.8608                 8.4031                 7.5033

                     43                     44                     45
                      A                      A                      A
 Frequencies --   1326.3314              1332.7444              1334.1469
 Red. masses --      1.0756                 1.1830                 1.1346
 Frc consts  --      1.1148                 1.2380                 1.1899
 IR Inten    --      4.5597                11.4902                 1.5717

                     46                     47                     48
                      A                      A                      A
 Frequencies --   1372.4325              1378.6655              1386.7611
 Red. masses --      1.3362                 1.3276                 1.3368
 Frc consts  --      1.4829                 1.4868                 1.5147
 IR Inten    --     12.2949                 5.9777                 4.3131

                     49                     50                     51
                      A                      A                      A
 Frequencies --   1426.7767              1428.9806              1434.6590
 Red. masses --      1.4491                 1.4389                 1.4738
 Frc consts  --      1.7380                 1.7311                 1.7872
 IR Inten    --      1.1931                 1.8004                 3.7864

                     52                     53                     54
                      A                      A                      A
 Frequencies --   1495.2166              1497.7592              1501.6311
 Red. masses --      1.0738                 1.0752                 1.1005
 Frc consts  --      1.4145                 1.4210                 1.4621
 IR Inten    --      2.3191                 1.4474                 4.7958

                     55                     56                     57
                      A                      A                      A
 Frequencies --   1513.3854              1519.0269              1520.0388
 Red. masses --      1.0857                 1.0892                 1.0892
 Frc consts  --      1.4651                 1.4808                 1.4828
 IR Inten    --      1.9734                 4.3576                 3.7613

                     58                     59                     60
                      A                      A                      A
 Frequencies --   1658.3417              1658.4794              1661.5816
 Red. masses --      1.0907                 1.0907                 1.0902
 Frc consts  --      1.7673                 1.7675                 1.7733
 IR Inten    --     46.4537                26.1564                34.6728

                     61                     62                     63
                      A                      A                      A
 Frequencies --   2899.4781              2906.9137              2945.5678
 Red. masses --      1.0737                 1.0735                 1.0713
 Frc consts  --      5.3182                 5.3449                 5.4765
 IR Inten    --     41.8020               122.1570                48.0162

                     64                     65                     66
                      A                      A                      A
 Frequencies --   2958.3568              2963.1972              2973.0918
 Red. masses --      1.0727                 1.0722                 1.0717
 Frc consts  --      5.5311                 5.5468                 5.5811
 IR Inten    --     67.3096                68.4963                92.3025

                     67                     68                     69
                      A                      A                      A
 Frequencies --   3042.8498              3060.9670              3062.8503
 Red. masses --      1.0861                 1.0877                 1.0874
 Frc consts  --      5.9251                 6.0043                 6.0103
 IR Inten    --      5.6077                 6.2013                37.5829

                     70                     71                     72
                      A                      A                      A
 Frequencies --   3064.8801              3085.7091              3089.5689
 Red. masses --      1.0928                 1.0886                 1.0894
 Frc consts  --      6.0481                 6.1069                 6.1271
 IR Inten    --     47.8369                29.4933                41.7741

                     73                     74                     75
                      A                      A                      A
 Frequencies --   3501.0594              3501.5273              3502.4686
 Red. masses --      1.0498                 1.0498                 1.0499
 Frc consts  --      7.5817                 7.5834                 7.5886
 IR Inten    --      0.3508                 0.3680                 0.4598

                     76                     77                     78
                      A                      A                      A
 Frequencies --   3580.8475              3581.6296              3582.4881
 Red. masses --      1.0930                 1.0930                 1.0930
 Frc consts  --      8.2570                 8.2612                 8.2646
 IR Inten    --      1.4145                 1.4850                 1.4865

 - Thermochemistry -
 -------------------
 Temperature   298.150 Kelvin.  Pressure   1.00000 Atm.
 Atom     1 has atomic number  7 and mass  14.00307

 Molecular mass:   146.15315 amu.
 Principal axes and moments of inertia in atomic units:
                           1         2         3
     Eigenvalues --  1986.595852003.836533745.02548
           X            0.98758  -0.15708   0.00282
           Y            0.15707   0.98758   0.00342
           Z           -0.00332  -0.00294   0.99999
 This molecule is an asymmetric top.
 Rotational symmetry number  1.
 Warning -- assumption of classical behavior for rotation
           may cause significant error
 Rotational temperatures (Kelvin)      0.04360     0.04322     0.02313
 Rotational constants (GHZ):           0.90846     0.90064     0.48190
 Zero-point vibrational energy     676993.3 (Joules/Mol)
                                  161.80529 (Kcal/Mol)
 Warning -- explicit consideration of  18 degrees of freedom as
           vibrations may cause significant error
 Vibrational temperatures:     90.78    93.11   101.51   111.39   125.05
          (Kelvin)            143.03   296.34   307.05   330.89   335.41
                              367.43   368.38   470.52   516.93   522.78
                              625.43   773.52   782.13  1134.76  1139.99
                             1141.67  1188.69  1191.08  1209.82  1306.69
                             1387.35  1407.19  1419.80  1513.46  1517.87
                             1532.35  1550.10  1568.67  1594.24  1622.55
                             1653.12  1728.04  1764.12  1798.94  1847.79
                             1872.13  1896.95  1908.30  1917.52  1919.54
                             1974.62  1983.59  1995.24  2052.81  2055.98
                             2064.15  2151.28  2154.94  2160.51  2177.42
                             2185.54  2187.00  2385.98  2386.18  2390.65
                             4171.70  4182.40  4238.02  4256.42  4263.38
                             4277.62  4377.98  4404.05  4406.76  4409.68
                             4439.65  4445.20  5037.24  5037.92  5039.27
                             5152.04  5153.17  5154.40

 Zero-point correction=                           0.257853 (Hartree/Particle)
 Thermal correction to Energy=                    0.271216
 Thermal correction to Enthalpy=                  0.272160
 Thermal correction to Gibbs Free Energy=         0.217432
 Sum of electronic and zero-point Energies=           -458.336501
 Sum of electronic and thermal Energies=              -458.323138
 Sum of electronic and thermal Enthalpies=            -458.322194
 Sum of electronic and thermal Free Energies=         -458.376923

                     E (Thermal)             CV                S
                      KCal/Mol        Cal/Mol-Kelvin    Cal/Mol-Kelvin
 Total                  170.191             47.344            115.186
 Electronic               0.000              0.000              0.000
 Translational            0.889              2.981             40.849
 Rotational               0.889              2.981             31.078
 Vibrational            168.413             41.383             43.259
 Vibration     1          0.597              1.972              4.358
 Vibration     2          0.597              1.971              4.308
 Vibration     3          0.598              1.968              4.138
 Vibration     4          0.599              1.964              3.955
 Vibration     5          0.601              1.958              3.728
 Vibration     6          0.604              1.950              3.466
 Vibration     7          0.640              1.831              2.079
 Vibration     8          0.644              1.821              2.014
 Vibration     9          0.652              1.795              1.879
 Vibration    10          0.654              1.790              1.855
 Vibration    11          0.666              1.754              1.693
 Vibration    12          0.666              1.753              1.689
 Vibration    13          0.711              1.621              1.275
 Vibration    14          0.734              1.556              1.125
 Vibration    15          0.737              1.548              1.108
 Vibration    16          0.795              1.395              0.843
 Vibration    17          0.893              1.167              0.570
 Vibration    18          0.899              1.154              0.558

 Optimization completed.
    -- Stationary point found.
 Normal termination of Gaussian 16 at Tue Dec  5 13:12:43 2023.
