 Gaussian 16, Revision A.03,
 Gaussian 16:  ES64L-G16RevA.03 25-Dec-2016

 ----------------------------------------------------------------------
 #HF/6-31G* SCF=tight Test Pop=MK iop(6/33=2) iop(6/42=6) guess=read ge
 om=AllCheck
 ----------------------------------------------------------------------

 Structure from the checkpoint file:  "AC.chk"
 -----
 Title
 -----
 Charge =  0 Multiplicity = 1

                         Standard orientation:
 ---------------------------------------------------------------------
 Center     Atomic      Atomic             Coordinates (Angstroms)
 Number     Number       Type             X           Y           Z
 ---------------------------------------------------------------------
      1          7           0       -2.827335   -2.499285    0.037636
      2          6           0       -1.607237   -1.843421   -0.449080
      3          6           0       -1.220104   -0.696264    0.488355
      4          7           0        0.004526   -0.007775    0.068873
      5          6           0        0.025773    1.402089    0.466857
      6          6           0       -0.744302    2.304666   -0.499608
      7          7           0       -0.712302    3.691615   -0.018876
      8          6           0        1.216790   -0.725716    0.472936
      9          6           0        2.383081   -0.508387   -0.493530
     10          7           0        3.571398   -1.221653   -0.008272
     11          1           0       -3.011032   -3.355462   -0.473223
     12          1           0       -3.637400   -1.899528   -0.084156
     13          1           0       -1.687929   -1.443437   -1.470245
     14          1           0       -0.811968   -2.593945   -0.463589
     15          1           0       -1.144704   -1.082354    1.518683
     16          1           0       -2.038531    0.030496    0.490251
     17          1           0        1.059056    1.752989    0.492552
     18          1           0       -0.369749    1.534183    1.491970
     19          1           0       -1.762802    1.913855   -0.644932
     20          1           0       -0.250345    2.266625   -1.474096
     21          1           0       -1.264898    3.798028    0.826227
     22          1           0       -1.096683    4.326637   -0.709579
     23          1           0        1.007352   -1.796382    0.504835
     24          1           0        1.526199   -0.443038    1.496837
     25          1           0        2.548481    0.569000   -0.642959
     26          1           0        2.106340   -0.923214   -1.466448
     27          1           0        3.936322   -0.789439    0.834947
     28          1           0        4.314274   -1.203135   -0.698172
 ---------------------------------------------------------------------

 SCF Done:  E(RHF) =  -455.427061853     A.U. after   11 cycles

 The electronic state is 1-A.
 Alpha  occ. eigenvalues --  -15.54354 -15.53978 -15.53841 -15.53710 -11.24382
 Alpha  occ. eigenvalues --  -11.24206 -11.24197 -11.24111 -11.24099 -11.24008
 Alpha  occ. eigenvalues --   -1.22436  -1.17086  -1.16932  -1.15912  -0.98752
 Alpha  occ. eigenvalues --   -0.98623  -0.90578  -0.82272  -0.82211  -0.77492
 Alpha  occ. eigenvalues --   -0.67606  -0.66529  -0.65706  -0.64017  -0.63007
 Alpha  occ. eigenvalues --   -0.60780  -0.59987  -0.58524  -0.57348  -0.55208
 Alpha  occ. eigenvalues --   -0.53497  -0.52923  -0.49942  -0.49292  -0.48558
 Alpha  occ. eigenvalues --   -0.47180  -0.46196  -0.38525  -0.38257  -0.38069
 Alpha  occ. eigenvalues --   -0.34349
 Alpha virt. eigenvalues --    0.22045   0.22750   0.22927   0.24552   0.26141
 Alpha virt. eigenvalues --    0.26951   0.27382   0.29251   0.31042   0.31526
 Alpha virt. eigenvalues --    0.32753   0.33424   0.33676   0.34770   0.35826

 Mulliken charges:
               1
     1  N   -0.854370
     2  C   -0.121277
     3  C   -0.105233
     4  N   -0.608810
     5  C   -0.108247
     6  C   -0.116774
     7  N   -0.855153
     8  C   -0.110423
     9  C   -0.118614
    10  N   -0.854967
    11  H    0.338854
    12  H    0.329074
    13  H    0.144495
    14  H    0.163325
    15  H    0.159184
    16  H    0.148882
    17  H    0.178743
    18  H    0.131116
    19  H    0.133714
    20  H    0.168696
    21  H    0.330503
    22  H    0.338158
    23  H    0.182550
    24  H    0.131745
    25  H    0.139078
    26  H    0.167190
    27  H    0.330654
    28  H    0.337906
 Sum of Mulliken charges =  -0.00000

 Dipole moment (field-independent basis, Debye):
    X=             -1.1196    Y=              1.2469    Z=             -1.2055  Tot=              2.0643
 Quadrupole moment (field-independent basis, Debye-Ang):
   XX=            -54.9538   YY=            -69.1224   ZZ=            -64.2791
   XY=             -1.9196   XZ=              2.8523   YZ=              3.9287

 ESP charges:
               1
     1  N   -1.129454
     2  C    0.287723
     3  C    0.456050
     4  N   -1.044121
     5  C    0.333556
     6  C    0.322623
     7  N   -1.104851
     8  C    0.297660
     9  C    0.293328
    10  N   -1.084130
    11  H    0.408963
    12  H    0.389401
    13  H   -0.044930
    14  H    0.062822
    15  H   -0.040976
    16  H   -0.005522
    17  H    0.025327
    18  H   -0.019641
    19  H   -0.033348
    20  H    0.031614
    21  H    0.379905
    22  H    0.401115
    23  H    0.017608
    24  H    0.009031
    25  H   -0.014262
    26  H    0.032846
    27  H    0.373136
    28  H    0.398526
 Sum of ESP charges =   0.00000

 Normal termination of Gaussian 16 at Wed Dec  6 17:05:19 2023.
